V -t * -v 1.0a5 -a 0
A -t * -n 1 -p 0 -o 0x7fffffff -c 30 -a 1
A -t * -h 1 -m 1073741823 -s 0
n -t * -a 0 -s 0 -S UP -v circle -c black -i black
n -t * -a 1 -s 1 -S UP -v circle -c black -i black
l -t * -s 0 -d 1 -S UP -r 2000000 -D 0.01 -c black -o right
+ -t 0.5 -s 0 -d 1 -p cbr -e 1000 -c 0 -i 0 -a 0 -x {0.0 1.0 0 ------- null}
- -t 0.5 -s 0 -d 1 -p cbr -e 1000 -c 0 -i 0 -a 0 -x {0.0 1.0 0 ------- null}
h -t 0.5 -s 0 -d 1 -p cbr -e 1000 -c 0 -i 0 -a 0 -x {0.0 1.0 -1 ------- null}
+ -t 0.505333333333333 -s 0 -d 1 -p cbr -e 1000 -c 0 -i 1 -a 0 -x {0.0 1.0 1 ------- null}
- -t 0.505333333333333 -s 0 -d 1 -p cbr -e 1000 -c 0 -i 1 -a 0 -x {0.0 1.0 1 ------- null}
h -t 0.505333333333333 -s 0 -d 1 -p cbr -e 1000 -c 0 -i 1 -a 0 -x {0.0 1.0 -1 ------- null}
+ -t 0.510666666666667 -s 0 -d 1 -p cbr -e 1000 -c 0 -i 2 -a 0 -x {0.0 1.0 2 ------- null}
- -t 0.510666666666667 -s 0 -d 1 -p cbr -e 1000 -c 0 -i 2 -a 0 -x {0.0 1.0 2 ------- null}
h -t 0.510666666666667 -s 0 -d 1 -p cbr -e 1000 -c 0 -i 2 -a 0 -x {0.0 1.0 -1 ------- null}
r -t 0.514 -s 0 -d 1 -p cbr -e 1000 -c 0 -i 0 -a 0 -x {0.0 1.0 0 ------- null}
+ -t 0.516 -s 0 -d 1 -p cbr -e 1000 -c 0 -i 3 -a 0 -x {0.0 1.0 3 ------- null}
- -t 0.516 -s 0 -d 1 -p cbr -e 1000 -c 0 -i 3 -a 0 -x {0.0 1.0 3 ------- null}
h -t 0.516 -s 0 -d 1 -p cbr -e 1000 -c 0 -i 3 -a 0 -x {0.0 1.0 -1 ------- null}
r -t 0.519333333333333 -s 0 -d 1 -p cbr -e 1000 -c 0 -i 1 -a 0 -x {0.0 1.0 1 ------- null}
+ -t 0.521333333333333 -s 0 -d 1 -p cbr -e 1000 -c 0 -i 4 -a 0 -x {0.0 1.0 4 ------- null}
- -t 0.521333333333333 -s 0 -d 1 -p cbr -e 1000 -c 0 -i 4 -a 0 -x {0.0 1.0 4 ------- null}
h -t 0.521333333333333 -s 0 -d 1 -p cbr -e 1000 -c 0 -i 4 -a 0 -x {0.0 1.0 -1 ------- null}
r -t 0.524666666666667 -s 0 -d 1 -p cbr -e 1000 -c 0 -i 2 -a 0 -x {0.0 1.0 2 ------- null}
+ -t 0.526666666666667 -s 0 -d 1 -p cbr -e 1000 -c 0 -i 5 -a 0 -x {0.0 1.0 5 ------- null}
- -t 0.526666666666667 -s 0 -d 1 -p cbr -e 1000 -c 0 -i 5 -a 0 -x {0.0 1.0 5 ------- null}
h -t 0.526666666666667 -s 0 -d 1 -p cbr -e 1000 -c 0 -i 5 -a 0 -x {0.0 1.0 -1 ------- null}
r -t 0.53 -s 0 -d 1 -p cbr -e 1000 -c 0 -i 3 -a 0 -x {0.0 1.0 3 ------- null}
+ -t 0.532 -s 0 -d 1 -p cbr -e 1000 -c 0 -i 6 -a 0 -x {0.0 1.0 6 ------- null}
- -t 0.532 -s 0 -d 1 -p cbr -e 1000 -c 0 -i 6 -a 0 -x {0.0 1.0 6 ------- null}
h -t 0.532 -s 0 -d 1 -p cbr -e 1000 -c 0 -i 6 -a 0 -x {0.0 1.0 -1 ------- null}
r -t 0.535333333333333 -s 0 -d 1 -p cbr -e 1000 -c 0 -i 4 -a 0 -x {0.0 1.0 4 ------- null}
+ -t 0.537333333333333 -s 0 -d 1 -p cbr -e 1000 -c 0 -i 7 -a 0 -x {0.0 1.0 7 ------- null}
- -t 0.537333333333333 -s 0 -d 1 -p cbr -e 1000 -c 0 -i 7 -a 0 -x {0.0 1.0 7 ------- null}
h -t 0.537333333333333 -s 0 -d 1 -p cbr -e 1000 -c 0 -i 7 -a 0 -x {0.0 1.0 -1 ------- null}
r -t 0.540666666666667 -s 0 -d 1 -p cbr -e 1000 -c 0 -i 5 -a 0 -x {0.0 1.0 5 ------- null}
+ -t 0.542666666666666 -s 0 -d 1 -p cbr -e 1000 -c 0 -i 8 -a 0 -x {0.0 1.0 8 ------- null}
- -t 0.542666666666666 -s 0 -d 1 -p cbr -e 1000 -c 0 -i 8 -a 0 -x {0.0 1.0 8 ------- null}
h -t 0.542666666666666 -s 0 -d 1 -p cbr -e 1000 -c 0 -i 8 -a 0 -x {0.0 1.0 -1 ------- null}
r -t 0.546 -s 0 -d 1 -p cbr -e 1000 -c 0 -i 6 -a 0 -x {0.0 1.0 6 ------- null}
+ -t 0.548 -s 0 -d 1 -p cbr -e 1000 -c 0 -i 9 -a 0 -x {0.0 1.0 9 ------- null}
- -t 0.548 -s 0 -d 1 -p cbr -e 1000 -c 0 -i 9 -a 0 -x {0.0 1.0 9 ------- null}
h -t 0.548 -s 0 -d 1 -p cbr -e 1000 -c 0 -i 9 -a 0 -x {0.0 1.0 -1 ------- null}
r -t 0.551333333333333 -s 0 -d 1 -p cbr -e 1000 -c 0 -i 7 -a 0 -x {0.0 1.0 7 ------- null}
+ -t 0.553333333333333 -s 0 -d 1 -p cbr -e 1000 -c 0 -i 10 -a 0 -x {0.0 1.0 10 ------- null}
- -t 0.553333333333333 -s 0 -d 1 -p cbr -e 1000 -c 0 -i 10 -a 0 -x {0.0 1.0 10 ------- null}
h -t 0.553333333333333 -s 0 -d 1 -p cbr -e 1000 -c 0 -i 10 -a 0 -x {0.0 1.0 -1 ------- null}
r -t 0.556666666666666 -s 0 -d 1 -p cbr -e 1000 -c 0 -i 8 -a 0 -x {0.0 1.0 8 ------- null}
+ -t 0.558666666666666 -s 0 -d 1 -p cbr -e 1000 -c 0 -i 11 -a 0 -x {0.0 1.0 11 ------- null}
- -t 0.558666666666666 -s 0 -d 1 -p cbr -e 1000 -c 0 -i 11 -a 0 -x {0.0 1.0 11 ------- null}
h -t 0.558666666666666 -s 0 -d 1 -p cbr -e 1000 -c 0 -i 11 -a 0 -x {0.0 1.0 -1 ------- null}
r -t 0.562 -s 0 -d 1 -p cbr -e 1000 -c 0 -i 9 -a 0 -x {0.0 1.0 9 ------- null}
+ -t 0.564 -s 0 -d 1 -p cbr -e 1000 -c 0 -i 12 -a 0 -x {0.0 1.0 12 ------- null}
- -t 0.564 -s 0 -d 1 -p cbr -e 1000 -c 0 -i 12 -a 0 -x {0.0 1.0 12 ------- null}
h -t 0.564 -s 0 -d 1 -p cbr -e 1000 -c 0 -i 12 -a 0 -x {0.0 1.0 -1 ------- null}
r -t 0.567333333333333 -s 0 -d 1 -p cbr -e 1000 -c 0 -i 10 -a 0 -x {0.0 1.0 10 ------- null}
+ -t 0.569333333333333 -s 0 -d 1 -p cbr -e 1000 -c 0 -i 13 -a 0 -x {0.0 1.0 13 ------- null}
- -t 0.569333333333333 -s 0 -d 1 -p cbr -e 1000 -c 0 -i 13 -a 0 -x {0.0 1.0 13 ------- null}
h -t 0.569333333333333 -s 0 -d 1 -p cbr -e 1000 -c 0 -i 13 -a 0 -x {0.0 1.0 -1 ------- null}
r -t 0.572666666666666 -s 0 -d 1 -p cbr -e 1000 -c 0 -i 11 -a 0 -x {0.0 1.0 11 ------- null}
+ -t 0.574666666666666 -s 0 -d 1 -p cbr -e 1000 -c 0 -i 14 -a 0 -x {0.0 1.0 14 ------- null}
- -t 0.574666666666666 -s 0 -d 1 -p cbr -e 1000 -c 0 -i 14 -a 0 -x {0.0 1.0 14 ------- null}
h -t 0.574666666666666 -s 0 -d 1 -p cbr -e 1000 -c 0 -i 14 -a 0 -x {0.0 1.0 -1 ------- null}
r -t 0.578 -s 0 -d 1 -p cbr -e 1000 -c 0 -i 12 -a 0 -x {0.0 1.0 12 ------- null}
+ -t 0.58 -s 0 -d 1 -p cbr -e 1000 -c 0 -i 15 -a 0 -x {0.0 1.0 15 ------- null}
- -t 0.58 -s 0 -d 1 -p cbr -e 1000 -c 0 -i 15 -a 0 -x {0.0 1.0 15 ------- null}
h -t 0.58 -s 0 -d 1 -p cbr -e 1000 -c 0 -i 15 -a 0 -x {0.0 1.0 -1 ------- null}
r -t 0.583333333333333 -s 0 -d 1 -p cbr -e 1000 -c 0 -i 13 -a 0 -x {0.0 1.0 13 ------- null}
+ -t 0.585333333333333 -s 0 -d 1 -p cbr -e 1000 -c 0 -i 16 -a 0 -x {0.0 1.0 16 ------- null}
- -t 0.585333333333333 -s 0 -d 1 -p cbr -e 1000 -c 0 -i 16 -a 0 -x {0.0 1.0 16 ------- null}
h -t 0.585333333333333 -s 0 -d 1 -p cbr -e 1000 -c 0 -i 16 -a 0 -x {0.0 1.0 -1 ------- null}
r -t 0.588666666666666 -s 0 -d 1 -p cbr -e 1000 -c 0 -i 14 -a 0 -x {0.0 1.0 14 ------- null}
+ -t 0.590666666666666 -s 0 -d 1 -p cbr -e 1000 -c 0 -i 17 -a 0 -x {0.0 1.0 17 ------- null}
- -t 0.590666666666666 -s 0 -d 1 -p cbr -e 1000 -c 0 -i 17 -a 0 -x {0.0 1.0 17 ------- null}
h -t 0.590666666666666 -s 0 -d 1 -p cbr -e 1000 -c 0 -i 17 -a 0 -x {0.0 1.0 -1 ------- null}
r -t 0.594 -s 0 -d 1 -p cbr -e 1000 -c 0 -i 15 -a 0 -x {0.0 1.0 15 ------- null}
+ -t 0.595999999999999 -s 0 -d 1 -p cbr -e 1000 -c 0 -i 18 -a 0 -x {0.0 1.0 18 ------- null}
- -t 0.595999999999999 -s 0 -d 1 -p cbr -e 1000 -c 0 -i 18 -a 0 -x {0.0 1.0 18 ------- null}
h -t 0.595999999999999 -s 0 -d 1 -p cbr -e 1000 -c 0 -i 18 -a 0 -x {0.0 1.0 -1 ------- null}
r -t 0.599333333333333 -s 0 -d 1 -p cbr -e 1000 -c 0 -i 16 -a 0 -x {0.0 1.0 16 ------- null}
+ -t 0.601333333333333 -s 0 -d 1 -p cbr -e 1000 -c 0 -i 19 -a 0 -x {0.0 1.0 19 ------- null}
- -t 0.601333333333333 -s 0 -d 1 -p cbr -e 1000 -c 0 -i 19 -a 0 -x {0.0 1.0 19 ------- null}
h -t 0.601333333333333 -s 0 -d 1 -p cbr -e 1000 -c 0 -i 19 -a 0 -x {0.0 1.0 -1 ------- null}
r -t 0.604666666666666 -s 0 -d 1 -p cbr -e 1000 -c 0 -i 17 -a 0 -x {0.0 1.0 17 ------- null}
+ -t 0.606666666666666 -s 0 -d 1 -p cbr -e 1000 -c 0 -i 20 -a 0 -x {0.0 1.0 20 ------- null}
- -t 0.606666666666666 -s 0 -d 1 -p cbr -e 1000 -c 0 -i 20 -a 0 -x {0.0 1.0 20 ------- null}
h -t 0.606666666666666 -s 0 -d 1 -p cbr -e 1000 -c 0 -i 20 -a 0 -x {0.0 1.0 -1 ------- null}
r -t 0.609999999999999 -s 0 -d 1 -p cbr -e 1000 -c 0 -i 18 -a 0 -x {0.0 1.0 18 ------- null}
+ -t 0.611999999999999 -s 0 -d 1 -p cbr -e 1000 -c 0 -i 21 -a 0 -x {0.0 1.0 21 ------- null}
- -t 0.611999999999999 -s 0 -d 1 -p cbr -e 1000 -c 0 -i 21 -a 0 -x {0.0 1.0 21 ------- null}
h -t 0.611999999999999 -s 0 -d 1 -p cbr -e 1000 -c 0 -i 21 -a 0 -x {0.0 1.0 -1 ------- null}
r -t 0.615333333333333 -s 0 -d 1 -p cbr -e 1000 -c 0 -i 19 -a 0 -x {0.0 1.0 19 ------- null}
+ -t 0.617333333333333 -s 0 -d 1 -p cbr -e 1000 -c 0 -i 22 -a 0 -x {0.0 1.0 22 ------- null}
- -t 0.617333333333333 -s 0 -d 1 -p cbr -e 1000 -c 0 -i 22 -a 0 -x {0.0 1.0 22 ------- null}
h -t 0.617333333333333 -s 0 -d 1 -p cbr -e 1000 -c 0 -i 22 -a 0 -x {0.0 1.0 -1 ------- null}
r -t 0.620666666666666 -s 0 -d 1 -p cbr -e 1000 -c 0 -i 20 -a 0 -x {0.0 1.0 20 ------- null}
+ -t 0.622666666666666 -s 0 -d 1 -p cbr -e 1000 -c 0 -i 23 -a 0 -x {0.0 1.0 23 ------- null}
- -t 0.622666666666666 -s 0 -d 1 -p cbr -e 1000 -c 0 -i 23 -a 0 -x {0.0 1.0 23 ------- null}
h -t 0.622666666666666 -s 0 -d 1 -p cbr -e 1000 -c 0 -i 23 -a 0 -x {0.0 1.0 -1 ------- null}
r -t 0.625999999999999 -s 0 -d 1 -p cbr -e 1000 -c 0 -i 21 -a 0 -x {0.0 1.0 21 ------- null}
+ -t 0.627999999999999 -s 0 -d 1 -p cbr -e 1000 -c 0 -i 24 -a 0 -x {0.0 1.0 24 ------- null}
- -t 0.627999999999999 -s 0 -d 1 -p cbr -e 1000 -c 0 -i 24 -a 0 -x {0.0 1.0 24 ------- null}
h -t 0.627999999999999 -s 0 -d 1 -p cbr -e 1000 -c 0 -i 24 -a 0 -x {0.0 1.0 -1 ------- null}
r -t 0.631333333333333 -s 0 -d 1 -p cbr -e 1000 -c 0 -i 22 -a 0 -x {0.0 1.0 22 ------- null}
+ -t 0.633333333333333 -s 0 -d 1 -p cbr -e 1000 -c 0 -i 25 -a 0 -x {0.0 1.0 25 ------- null}
- -t 0.633333333333333 -s 0 -d 1 -p cbr -e 1000 -c 0 -i 25 -a 0 -x {0.0 1.0 25 ------- null}
h -t 0.633333333333333 -s 0 -d 1 -p cbr -e 1000 -c 0 -i 25 -a 0 -x {0.0 1.0 -1 ------- null}
r -t 0.636666666666666 -s 0 -d 1 -p cbr -e 1000 -c 0 -i 23 -a 0 -x {0.0 1.0 23 ------- null}
+ -t 0.638666666666666 -s 0 -d 1 -p cbr -e 1000 -c 0 -i 26 -a 0 -x {0.0 1.0 26 ------- null}
- -t 0.638666666666666 -s 0 -d 1 -p cbr -e 1000 -c 0 -i 26 -a 0 -x {0.0 1.0 26 ------- null}
h -t 0.638666666666666 -s 0 -d 1 -p cbr -e 1000 -c 0 -i 26 -a 0 -x {0.0 1.0 -1 ------- null}
r -t 0.641999999999999 -s 0 -d 1 -p cbr -e 1000 -c 0 -i 24 -a 0 -x {0.0 1.0 24 ------- null}
+ -t 0.643999999999999 -s 0 -d 1 -p cbr -e 1000 -c 0 -i 27 -a 0 -x {0.0 1.0 27 ------- null}
- -t 0.643999999999999 -s 0 -d 1 -p cbr -e 1000 -c 0 -i 27 -a 0 -x {0.0 1.0 27 ------- null}
h -t 0.643999999999999 -s 0 -d 1 -p cbr -e 1000 -c 0 -i 27 -a 0 -x {0.0 1.0 -1 ------- null}
r -t 0.647333333333333 -s 0 -d 1 -p cbr -e 1000 -c 0 -i 25 -a 0 -x {0.0 1.0 25 ------- null}
+ -t 0.649333333333332 -s 0 -d 1 -p cbr -e 1000 -c 0 -i 28 -a 0 -x {0.0 1.0 28 ------- null}
- -t 0.649333333333332 -s 0 -d 1 -p cbr -e 1000 -c 0 -i 28 -a 0 -x {0.0 1.0 28 ------- null}
h -t 0.649333333333332 -s 0 -d 1 -p cbr -e 1000 -c 0 -i 28 -a 0 -x {0.0 1.0 -1 ------- null}
r -t 0.652666666666666 -s 0 -d 1 -p cbr -e 1000 -c 0 -i 26 -a 0 -x {0.0 1.0 26 ------- null}
+ -t 0.654666666666666 -s 0 -d 1 -p cbr -e 1000 -c 0 -i 29 -a 0 -x {0.0 1.0 29 ------- null}
- -t 0.654666666666666 -s 0 -d 1 -p cbr -e 1000 -c 0 -i 29 -a 0 -x {0.0 1.0 29 ------- null}
h -t 0.654666666666666 -s 0 -d 1 -p cbr -e 1000 -c 0 -i 29 -a 0 -x {0.0 1.0 -1 ------- null}
r -t 0.657999999999999 -s 0 -d 1 -p cbr -e 1000 -c 0 -i 27 -a 0 -x {0.0 1.0 27 ------- null}
+ -t 0.659999999999999 -s 0 -d 1 -p cbr -e 1000 -c 0 -i 30 -a 0 -x {0.0 1.0 30 ------- null}
- -t 0.659999999999999 -s 0 -d 1 -p cbr -e 1000 -c 0 -i 30 -a 0 -x {0.0 1.0 30 ------- null}
h -t 0.659999999999999 -s 0 -d 1 -p cbr -e 1000 -c 0 -i 30 -a 0 -x {0.0 1.0 -1 ------- null}
r -t 0.663333333333332 -s 0 -d 1 -p cbr -e 1000 -c 0 -i 28 -a 0 -x {0.0 1.0 28 ------- null}
+ -t 0.665333333333332 -s 0 -d 1 -p cbr -e 1000 -c 0 -i 31 -a 0 -x {0.0 1.0 31 ------- null}
- -t 0.665333333333332 -s 0 -d 1 -p cbr -e 1000 -c 0 -i 31 -a 0 -x {0.0 1.0 31 ------- null}
h -t 0.665333333333332 -s 0 -d 1 -p cbr -e 1000 -c 0 -i 31 -a 0 -x {0.0 1.0 -1 ------- null}
r -t 0.668666666666666 -s 0 -d 1 -p cbr -e 1000 -c 0 -i 29 -a 0 -x {0.0 1.0 29 ------- null}
+ -t 0.670666666666666 -s 0 -d 1 -p cbr -e 1000 -c 0 -i 32 -a 0 -x {0.0 1.0 32 ------- null}
- -t 0.670666666666666 -s 0 -d 1 -p cbr -e 1000 -c 0 -i 32 -a 0 -x {0.0 1.0 32 ------- null}
h -t 0.670666666666666 -s 0 -d 1 -p cbr -e 1000 -c 0 -i 32 -a 0 -x {0.0 1.0 -1 ------- null}
r -t 0.673999999999999 -s 0 -d 1 -p cbr -e 1000 -c 0 -i 30 -a 0 -x {0.0 1.0 30 ------- null}
+ -t 0.675999999999999 -s 0 -d 1 -p cbr -e 1000 -c 0 -i 33 -a 0 -x {0.0 1.0 33 ------- null}
- -t 0.675999999999999 -s 0 -d 1 -p cbr -e 1000 -c 0 -i 33 -a 0 -x {0.0 1.0 33 ------- null}
h -t 0.675999999999999 -s 0 -d 1 -p cbr -e 1000 -c 0 -i 33 -a 0 -x {0.0 1.0 -1 ------- null}
r -t 0.679333333333332 -s 0 -d 1 -p cbr -e 1000 -c 0 -i 31 -a 0 -x {0.0 1.0 31 ------- null}
+ -t 0.681333333333332 -s 0 -d 1 -p cbr -e 1000 -c 0 -i 34 -a 0 -x {0.0 1.0 34 ------- null}
- -t 0.681333333333332 -s 0 -d 1 -p cbr -e 1000 -c 0 -i 34 -a 0 -x {0.0 1.0 34 ------- null}
h -t 0.681333333333332 -s 0 -d 1 -p cbr -e 1000 -c 0 -i 34 -a 0 -x {0.0 1.0 -1 ------- null}
r -t 0.684666666666666 -s 0 -d 1 -p cbr -e 1000 -c 0 -i 32 -a 0 -x {0.0 1.0 32 ------- null}
+ -t 0.686666666666666 -s 0 -d 1 -p cbr -e 1000 -c 0 -i 35 -a 0 -x {0.0 1.0 35 ------- null}
- -t 0.686666666666666 -s 0 -d 1 -p cbr -e 1000 -c 0 -i 35 -a 0 -x {0.0 1.0 35 ------- null}
h -t 0.686666666666666 -s 0 -d 1 -p cbr -e 1000 -c 0 -i 35 -a 0 -x {0.0 1.0 -1 ------- null}
r -t 0.689999999999999 -s 0 -d 1 -p cbr -e 1000 -c 0 -i 33 -a 0 -x {0.0 1.0 33 ------- null}
+ -t 0.691999999999999 -s 0 -d 1 -p cbr -e 1000 -c 0 -i 36 -a 0 -x {0.0 1.0 36 ------- null}
- -t 0.691999999999999 -s 0 -d 1 -p cbr -e 1000 -c 0 -i 36 -a 0 -x {0.0 1.0 36 ------- null}
h -t 0.691999999999999 -s 0 -d 1 -p cbr -e 1000 -c 0 -i 36 -a 0 -x {0.0 1.0 -1 ------- null}
r -t 0.695333333333332 -s 0 -d 1 -p cbr -e 1000 -c 0 -i 34 -a 0 -x {0.0 1.0 34 ------- null}
+ -t 0.697333333333332 -s 0 -d 1 -p cbr -e 1000 -c 0 -i 37 -a 0 -x {0.0 1.0 37 ------- null}
- -t 0.697333333333332 -s 0 -d 1 -p cbr -e 1000 -c 0 -i 37 -a 0 -x {0.0 1.0 37 ------- null}
h -t 0.697333333333332 -s 0 -d 1 -p cbr -e 1000 -c 0 -i 37 -a 0 -x {0.0 1.0 -1 ------- null}
r -t 0.700666666666666 -s 0 -d 1 -p cbr -e 1000 -c 0 -i 35 -a 0 -x {0.0 1.0 35 ------- null}
+ -t 0.702666666666665 -s 0 -d 1 -p cbr -e 1000 -c 0 -i 38 -a 0 -x {0.0 1.0 38 ------- null}
- -t 0.702666666666665 -s 0 -d 1 -p cbr -e 1000 -c 0 -i 38 -a 0 -x {0.0 1.0 38 ------- null}
h -t 0.702666666666665 -s 0 -d 1 -p cbr -e 1000 -c 0 -i 38 -a 0 -x {0.0 1.0 -1 ------- null}
r -t 0.705999999999999 -s 0 -d 1 -p cbr -e 1000 -c 0 -i 36 -a 0 -x {0.0 1.0 36 ------- null}
+ -t 0.707999999999999 -s 0 -d 1 -p cbr -e 1000 -c 0 -i 39 -a 0 -x {0.0 1.0 39 ------- null}
- -t 0.707999999999999 -s 0 -d 1 -p cbr -e 1000 -c 0 -i 39 -a 0 -x {0.0 1.0 39 ------- null}
h -t 0.707999999999999 -s 0 -d 1 -p cbr -e 1000 -c 0 -i 39 -a 0 -x {0.0 1.0 -1 ------- null}
r -t 0.711333333333332 -s 0 -d 1 -p cbr -e 1000 -c 0 -i 37 -a 0 -x {0.0 1.0 37 ------- null}
+ -t 0.713333333333332 -s 0 -d 1 -p cbr -e 1000 -c 0 -i 40 -a 0 -x {0.0 1.0 40 ------- null}
- -t 0.713333333333332 -s 0 -d 1 -p cbr -e 1000 -c 0 -i 40 -a 0 -x {0.0 1.0 40 ------- null}
h -t 0.713333333333332 -s 0 -d 1 -p cbr -e 1000 -c 0 -i 40 -a 0 -x {0.0 1.0 -1 ------- null}
r -t 0.716666666666665 -s 0 -d 1 -p cbr -e 1000 -c 0 -i 38 -a 0 -x {0.0 1.0 38 ------- null}
+ -t 0.718666666666665 -s 0 -d 1 -p cbr -e 1000 -c 0 -i 41 -a 0 -x {0.0 1.0 41 ------- null}
- -t 0.718666666666665 -s 0 -d 1 -p cbr -e 1000 -c 0 -i 41 -a 0 -x {0.0 1.0 41 ------- null}
h -t 0.718666666666665 -s 0 -d 1 -p cbr -e 1000 -c 0 -i 41 -a 0 -x {0.0 1.0 -1 ------- null}
r -t 0.721999999999999 -s 0 -d 1 -p cbr -e 1000 -c 0 -i 39 -a 0 -x {0.0 1.0 39 ------- null}
+ -t 0.723999999999999 -s 0 -d 1 -p cbr -e 1000 -c 0 -i 42 -a 0 -x {0.0 1.0 42 ------- null}
- -t 0.723999999999999 -s 0 -d 1 -p cbr -e 1000 -c 0 -i 42 -a 0 -x {0.0 1.0 42 ------- null}
h -t 0.723999999999999 -s 0 -d 1 -p cbr -e 1000 -c 0 -i 42 -a 0 -x {0.0 1.0 -1 ------- null}
r -t 0.727333333333332 -s 0 -d 1 -p cbr -e 1000 -c 0 -i 40 -a 0 -x {0.0 1.0 40 ------- null}
+ -t 0.729333333333332 -s 0 -d 1 -p cbr -e 1000 -c 0 -i 43 -a 0 -x {0.0 1.0 43 ------- null}
- -t 0.729333333333332 -s 0 -d 1 -p cbr -e 1000 -c 0 -i 43 -a 0 -x {0.0 1.0 43 ------- null}
h -t 0.729333333333332 -s 0 -d 1 -p cbr -e 1000 -c 0 -i 43 -a 0 -x {0.0 1.0 -1 ------- null}
r -t 0.732666666666665 -s 0 -d 1 -p cbr -e 1000 -c 0 -i 41 -a 0 -x {0.0 1.0 41 ------- null}
+ -t 0.734666666666665 -s 0 -d 1 -p cbr -e 1000 -c 0 -i 44 -a 0 -x {0.0 1.0 44 ------- null}
- -t 0.734666666666665 -s 0 -d 1 -p cbr -e 1000 -c 0 -i 44 -a 0 -x {0.0 1.0 44 ------- null}
h -t 0.734666666666665 -s 0 -d 1 -p cbr -e 1000 -c 0 -i 44 -a 0 -x {0.0 1.0 -1 ------- null}
r -t 0.737999999999999 -s 0 -d 1 -p cbr -e 1000 -c 0 -i 42 -a 0 -x {0.0 1.0 42 ------- null}
+ -t 0.739999999999999 -s 0 -d 1 -p cbr -e 1000 -c 0 -i 45 -a 0 -x {0.0 1.0 45 ------- null}
- -t 0.739999999999999 -s 0 -d 1 -p cbr -e 1000 -c 0 -i 45 -a 0 -x {0.0 1.0 45 ------- null}
h -t 0.739999999999999 -s 0 -d 1 -p cbr -e 1000 -c 0 -i 45 -a 0 -x {0.0 1.0 -1 ------- null}
r -t 0.743333333333332 -s 0 -d 1 -p cbr -e 1000 -c 0 -i 43 -a 0 -x {0.0 1.0 43 ------- null}
+ -t 0.745333333333332 -s 0 -d 1 -p cbr -e 1000 -c 0 -i 46 -a 0 -x {0.0 1.0 46 ------- null}
- -t 0.745333333333332 -s 0 -d 1 -p cbr -e 1000 -c 0 -i 46 -a 0 -x {0.0 1.0 46 ------- null}
h -t 0.745333333333332 -s 0 -d 1 -p cbr -e 1000 -c 0 -i 46 -a 0 -x {0.0 1.0 -1 ------- null}
r -t 0.748666666666665 -s 0 -d 1 -p cbr -e 1000 -c 0 -i 44 -a 0 -x {0.0 1.0 44 ------- null}
+ -t 0.750666666666665 -s 0 -d 1 -p cbr -e 1000 -c 0 -i 47 -a 0 -x {0.0 1.0 47 ------- null}
- -t 0.750666666666665 -s 0 -d 1 -p cbr -e 1000 -c 0 -i 47 -a 0 -x {0.0 1.0 47 ------- null}
h -t 0.750666666666665 -s 0 -d 1 -p cbr -e 1000 -c 0 -i 47 -a 0 -x {0.0 1.0 -1 ------- null}
r -t 0.753999999999999 -s 0 -d 1 -p cbr -e 1000 -c 0 -i 45 -a 0 -x {0.0 1.0 45 ------- null}
+ -t 0.755999999999998 -s 0 -d 1 -p cbr -e 1000 -c 0 -i 48 -a 0 -x {0.0 1.0 48 ------- null}
- -t 0.755999999999998 -s 0 -d 1 -p cbr -e 1000 -c 0 -i 48 -a 0 -x {0.0 1.0 48 ------- null}
h -t 0.755999999999998 -s 0 -d 1 -p cbr -e 1000 -c 0 -i 48 -a 0 -x {0.0 1.0 -1 ------- null}
r -t 0.759333333333332 -s 0 -d 1 -p cbr -e 1000 -c 0 -i 46 -a 0 -x {0.0 1.0 46 ------- null}
+ -t 0.761333333333332 -s 0 -d 1 -p cbr -e 1000 -c 0 -i 49 -a 0 -x {0.0 1.0 49 ------- null}
- -t 0.761333333333332 -s 0 -d 1 -p cbr -e 1000 -c 0 -i 49 -a 0 -x {0.0 1.0 49 ------- null}
h -t 0.761333333333332 -s 0 -d 1 -p cbr -e 1000 -c 0 -i 49 -a 0 -x {0.0 1.0 -1 ------- null}
r -t 0.764666666666665 -s 0 -d 1 -p cbr -e 1000 -c 0 -i 47 -a 0 -x {0.0 1.0 47 ------- null}
+ -t 0.766666666666665 -s 0 -d 1 -p cbr -e 1000 -c 0 -i 50 -a 0 -x {0.0 1.0 50 ------- null}
- -t 0.766666666666665 -s 0 -d 1 -p cbr -e 1000 -c 0 -i 50 -a 0 -x {0.0 1.0 50 ------- null}
h -t 0.766666666666665 -s 0 -d 1 -p cbr -e 1000 -c 0 -i 50 -a 0 -x {0.0 1.0 -1 ------- null}
r -t 0.769999999999998 -s 0 -d 1 -p cbr -e 1000 -c 0 -i 48 -a 0 -x {0.0 1.0 48 ------- null}
+ -t 0.771999999999998 -s 0 -d 1 -p cbr -e 1000 -c 0 -i 51 -a 0 -x {0.0 1.0 51 ------- null}
- -t 0.771999999999998 -s 0 -d 1 -p cbr -e 1000 -c 0 -i 51 -a 0 -x {0.0 1.0 51 ------- null}
h -t 0.771999999999998 -s 0 -d 1 -p cbr -e 1000 -c 0 -i 51 -a 0 -x {0.0 1.0 -1 ------- null}
r -t 0.775333333333332 -s 0 -d 1 -p cbr -e 1000 -c 0 -i 49 -a 0 -x {0.0 1.0 49 ------- null}
+ -t 0.777333333333332 -s 0 -d 1 -p cbr -e 1000 -c 0 -i 52 -a 0 -x {0.0 1.0 52 ------- null}
- -t 0.777333333333332 -s 0 -d 1 -p cbr -e 1000 -c 0 -i 52 -a 0 -x {0.0 1.0 52 ------- null}
h -t 0.777333333333332 -s 0 -d 1 -p cbr -e 1000 -c 0 -i 52 -a 0 -x {0.0 1.0 -1 ------- null}
r -t 0.780666666666665 -s 0 -d 1 -p cbr -e 1000 -c 0 -i 50 -a 0 -x {0.0 1.0 50 ------- null}
+ -t 0.782666666666665 -s 0 -d 1 -p cbr -e 1000 -c 0 -i 53 -a 0 -x {0.0 1.0 53 ------- null}
- -t 0.782666666666665 -s 0 -d 1 -p cbr -e 1000 -c 0 -i 53 -a 0 -x {0.0 1.0 53 ------- null}
h -t 0.782666666666665 -s 0 -d 1 -p cbr -e 1000 -c 0 -i 53 -a 0 -x {0.0 1.0 -1 ------- null}
r -t 0.785999999999998 -s 0 -d 1 -p cbr -e 1000 -c 0 -i 51 -a 0 -x {0.0 1.0 51 ------- null}
+ -t 0.787999999999998 -s 0 -d 1 -p cbr -e 1000 -c 0 -i 54 -a 0 -x {0.0 1.0 54 ------- null}
- -t 0.787999999999998 -s 0 -d 1 -p cbr -e 1000 -c 0 -i 54 -a 0 -x {0.0 1.0 54 ------- null}
h -t 0.787999999999998 -s 0 -d 1 -p cbr -e 1000 -c 0 -i 54 -a 0 -x {0.0 1.0 -1 ------- null}
r -t 0.791333333333332 -s 0 -d 1 -p cbr -e 1000 -c 0 -i 52 -a 0 -x {0.0 1.0 52 ------- null}
+ -t 0.793333333333332 -s 0 -d 1 -p cbr -e 1000 -c 0 -i 55 -a 0 -x {0.0 1.0 55 ------- null}
- -t 0.793333333333332 -s 0 -d 1 -p cbr -e 1000 -c 0 -i 55 -a 0 -x {0.0 1.0 55 ------- null}
h -t 0.793333333333332 -s 0 -d 1 -p cbr -e 1000 -c 0 -i 55 -a 0 -x {0.0 1.0 -1 ------- null}
r -t 0.796666666666665 -s 0 -d 1 -p cbr -e 1000 -c 0 -i 53 -a 0 -x {0.0 1.0 53 ------- null}
+ -t 0.798666666666665 -s 0 -d 1 -p cbr -e 1000 -c 0 -i 56 -a 0 -x {0.0 1.0 56 ------- null}
- -t 0.798666666666665 -s 0 -d 1 -p cbr -e 1000 -c 0 -i 56 -a 0 -x {0.0 1.0 56 ------- null}
h -t 0.798666666666665 -s 0 -d 1 -p cbr -e 1000 -c 0 -i 56 -a 0 -x {0.0 1.0 -1 ------- null}
r -t 0.801999999999998 -s 0 -d 1 -p cbr -e 1000 -c 0 -i 54 -a 0 -x {0.0 1.0 54 ------- null}
+ -t 0.803999999999998 -s 0 -d 1 -p cbr -e 1000 -c 0 -i 57 -a 0 -x {0.0 1.0 57 ------- null}
- -t 0.803999999999998 -s 0 -d 1 -p cbr -e 1000 -c 0 -i 57 -a 0 -x {0.0 1.0 57 ------- null}
h -t 0.803999999999998 -s 0 -d 1 -p cbr -e 1000 -c 0 -i 57 -a 0 -x {0.0 1.0 -1 ------- null}
r -t 0.807333333333332 -s 0 -d 1 -p cbr -e 1000 -c 0 -i 55 -a 0 -x {0.0 1.0 55 ------- null}
+ -t 0.809333333333331 -s 0 -d 1 -p cbr -e 1000 -c 0 -i 58 -a 0 -x {0.0 1.0 58 ------- null}
- -t 0.809333333333331 -s 0 -d 1 -p cbr -e 1000 -c 0 -i 58 -a 0 -x {0.0 1.0 58 ------- null}
h -t 0.809333333333331 -s 0 -d 1 -p cbr -e 1000 -c 0 -i 58 -a 0 -x {0.0 1.0 -1 ------- null}
r -t 0.812666666666665 -s 0 -d 1 -p cbr -e 1000 -c 0 -i 56 -a 0 -x {0.0 1.0 56 ------- null}
+ -t 0.814666666666665 -s 0 -d 1 -p cbr -e 1000 -c 0 -i 59 -a 0 -x {0.0 1.0 59 ------- null}
- -t 0.814666666666665 -s 0 -d 1 -p cbr -e 1000 -c 0 -i 59 -a 0 -x {0.0 1.0 59 ------- null}
h -t 0.814666666666665 -s 0 -d 1 -p cbr -e 1000 -c 0 -i 59 -a 0 -x {0.0 1.0 -1 ------- null}
r -t 0.817999999999998 -s 0 -d 1 -p cbr -e 1000 -c 0 -i 57 -a 0 -x {0.0 1.0 57 ------- null}
+ -t 0.819999999999998 -s 0 -d 1 -p cbr -e 1000 -c 0 -i 60 -a 0 -x {0.0 1.0 60 ------- null}
- -t 0.819999999999998 -s 0 -d 1 -p cbr -e 1000 -c 0 -i 60 -a 0 -x {0.0 1.0 60 ------- null}
h -t 0.819999999999998 -s 0 -d 1 -p cbr -e 1000 -c 0 -i 60 -a 0 -x {0.0 1.0 -1 ------- null}
r -t 0.823333333333331 -s 0 -d 1 -p cbr -e 1000 -c 0 -i 58 -a 0 -x {0.0 1.0 58 ------- null}
+ -t 0.825333333333331 -s 0 -d 1 -p cbr -e 1000 -c 0 -i 61 -a 0 -x {0.0 1.0 61 ------- null}
- -t 0.825333333333331 -s 0 -d 1 -p cbr -e 1000 -c 0 -i 61 -a 0 -x {0.0 1.0 61 ------- null}
h -t 0.825333333333331 -s 0 -d 1 -p cbr -e 1000 -c 0 -i 61 -a 0 -x {0.0 1.0 -1 ------- null}
r -t 0.828666666666665 -s 0 -d 1 -p cbr -e 1000 -c 0 -i 59 -a 0 -x {0.0 1.0 59 ------- null}
+ -t 0.830666666666665 -s 0 -d 1 -p cbr -e 1000 -c 0 -i 62 -a 0 -x {0.0 1.0 62 ------- null}
- -t 0.830666666666665 -s 0 -d 1 -p cbr -e 1000 -c 0 -i 62 -a 0 -x {0.0 1.0 62 ------- null}
h -t 0.830666666666665 -s 0 -d 1 -p cbr -e 1000 -c 0 -i 62 -a 0 -x {0.0 1.0 -1 ------- null}
r -t 0.833999999999998 -s 0 -d 1 -p cbr -e 1000 -c 0 -i 60 -a 0 -x {0.0 1.0 60 ------- null}
+ -t 0.835999999999998 -s 0 -d 1 -p cbr -e 1000 -c 0 -i 63 -a 0 -x {0.0 1.0 63 ------- null}
- -t 0.835999999999998 -s 0 -d 1 -p cbr -e 1000 -c 0 -i 63 -a 0 -x {0.0 1.0 63 ------- null}
h -t 0.835999999999998 -s 0 -d 1 -p cbr -e 1000 -c 0 -i 63 -a 0 -x {0.0 1.0 -1 ------- null}
r -t 0.839333333333331 -s 0 -d 1 -p cbr -e 1000 -c 0 -i 61 -a 0 -x {0.0 1.0 61 ------- null}
+ -t 0.841333333333331 -s 0 -d 1 -p cbr -e 1000 -c 0 -i 64 -a 0 -x {0.0 1.0 64 ------- null}
- -t 0.841333333333331 -s 0 -d 1 -p cbr -e 1000 -c 0 -i 64 -a 0 -x {0.0 1.0 64 ------- null}
h -t 0.841333333333331 -s 0 -d 1 -p cbr -e 1000 -c 0 -i 64 -a 0 -x {0.0 1.0 -1 ------- null}
r -t 0.844666666666665 -s 0 -d 1 -p cbr -e 1000 -c 0 -i 62 -a 0 -x {0.0 1.0 62 ------- null}
+ -t 0.846666666666665 -s 0 -d 1 -p cbr -e 1000 -c 0 -i 65 -a 0 -x {0.0 1.0 65 ------- null}
- -t 0.846666666666665 -s 0 -d 1 -p cbr -e 1000 -c 0 -i 65 -a 0 -x {0.0 1.0 65 ------- null}
h -t 0.846666666666665 -s 0 -d 1 -p cbr -e 1000 -c 0 -i 65 -a 0 -x {0.0 1.0 -1 ------- null}
r -t 0.849999999999998 -s 0 -d 1 -p cbr -e 1000 -c 0 -i 63 -a 0 -x {0.0 1.0 63 ------- null}
+ -t 0.851999999999998 -s 0 -d 1 -p cbr -e 1000 -c 0 -i 66 -a 0 -x {0.0 1.0 66 ------- null}
- -t 0.851999999999998 -s 0 -d 1 -p cbr -e 1000 -c 0 -i 66 -a 0 -x {0.0 1.0 66 ------- null}
h -t 0.851999999999998 -s 0 -d 1 -p cbr -e 1000 -c 0 -i 66 -a 0 -x {0.0 1.0 -1 ------- null}
r -t 0.855333333333331 -s 0 -d 1 -p cbr -e 1000 -c 0 -i 64 -a 0 -x {0.0 1.0 64 ------- null}
+ -t 0.857333333333331 -s 0 -d 1 -p cbr -e 1000 -c 0 -i 67 -a 0 -x {0.0 1.0 67 ------- null}
- -t 0.857333333333331 -s 0 -d 1 -p cbr -e 1000 -c 0 -i 67 -a 0 -x {0.0 1.0 67 ------- null}
h -t 0.857333333333331 -s 0 -d 1 -p cbr -e 1000 -c 0 -i 67 -a 0 -x {0.0 1.0 -1 ------- null}
r -t 0.860666666666665 -s 0 -d 1 -p cbr -e 1000 -c 0 -i 65 -a 0 -x {0.0 1.0 65 ------- null}
+ -t 0.862666666666664 -s 0 -d 1 -p cbr -e 1000 -c 0 -i 68 -a 0 -x {0.0 1.0 68 ------- null}
- -t 0.862666666666664 -s 0 -d 1 -p cbr -e 1000 -c 0 -i 68 -a 0 -x {0.0 1.0 68 ------- null}
h -t 0.862666666666664 -s 0 -d 1 -p cbr -e 1000 -c 0 -i 68 -a 0 -x {0.0 1.0 -1 ------- null}
r -t 0.865999999999998 -s 0 -d 1 -p cbr -e 1000 -c 0 -i 66 -a 0 -x {0.0 1.0 66 ------- null}
+ -t 0.867999999999998 -s 0 -d 1 -p cbr -e 1000 -c 0 -i 69 -a 0 -x {0.0 1.0 69 ------- null}
- -t 0.867999999999998 -s 0 -d 1 -p cbr -e 1000 -c 0 -i 69 -a 0 -x {0.0 1.0 69 ------- null}
h -t 0.867999999999998 -s 0 -d 1 -p cbr -e 1000 -c 0 -i 69 -a 0 -x {0.0 1.0 -1 ------- null}
r -t 0.871333333333331 -s 0 -d 1 -p cbr -e 1000 -c 0 -i 67 -a 0 -x {0.0 1.0 67 ------- null}
+ -t 0.873333333333331 -s 0 -d 1 -p cbr -e 1000 -c 0 -i 70 -a 0 -x {0.0 1.0 70 ------- null}
- -t 0.873333333333331 -s 0 -d 1 -p cbr -e 1000 -c 0 -i 70 -a 0 -x {0.0 1.0 70 ------- null}
h -t 0.873333333333331 -s 0 -d 1 -p cbr -e 1000 -c 0 -i 70 -a 0 -x {0.0 1.0 -1 ------- null}
r -t 0.876666666666664 -s 0 -d 1 -p cbr -e 1000 -c 0 -i 68 -a 0 -x {0.0 1.0 68 ------- null}
+ -t 0.878666666666664 -s 0 -d 1 -p cbr -e 1000 -c 0 -i 71 -a 0 -x {0.0 1.0 71 ------- null}
- -t 0.878666666666664 -s 0 -d 1 -p cbr -e 1000 -c 0 -i 71 -a 0 -x {0.0 1.0 71 ------- null}
h -t 0.878666666666664 -s 0 -d 1 -p cbr -e 1000 -c 0 -i 71 -a 0 -x {0.0 1.0 -1 ------- null}
r -t 0.881999999999998 -s 0 -d 1 -p cbr -e 1000 -c 0 -i 69 -a 0 -x {0.0 1.0 69 ------- null}
+ -t 0.883999999999998 -s 0 -d 1 -p cbr -e 1000 -c 0 -i 72 -a 0 -x {0.0 1.0 72 ------- null}
- -t 0.883999999999998 -s 0 -d 1 -p cbr -e 1000 -c 0 -i 72 -a 0 -x {0.0 1.0 72 ------- null}
h -t 0.883999999999998 -s 0 -d 1 -p cbr -e 1000 -c 0 -i 72 -a 0 -x {0.0 1.0 -1 ------- null}
r -t 0.887333333333331 -s 0 -d 1 -p cbr -e 1000 -c 0 -i 70 -a 0 -x {0.0 1.0 70 ------- null}
+ -t 0.889333333333331 -s 0 -d 1 -p cbr -e 1000 -c 0 -i 73 -a 0 -x {0.0 1.0 73 ------- null}
- -t 0.889333333333331 -s 0 -d 1 -p cbr -e 1000 -c 0 -i 73 -a 0 -x {0.0 1.0 73 ------- null}
h -t 0.889333333333331 -s 0 -d 1 -p cbr -e 1000 -c 0 -i 73 -a 0 -x {0.0 1.0 -1 ------- null}
r -t 0.892666666666664 -s 0 -d 1 -p cbr -e 1000 -c 0 -i 71 -a 0 -x {0.0 1.0 71 ------- null}
+ -t 0.894666666666664 -s 0 -d 1 -p cbr -e 1000 -c 0 -i 74 -a 0 -x {0.0 1.0 74 ------- null}
- -t 0.894666666666664 -s 0 -d 1 -p cbr -e 1000 -c 0 -i 74 -a 0 -x {0.0 1.0 74 ------- null}
h -t 0.894666666666664 -s 0 -d 1 -p cbr -e 1000 -c 0 -i 74 -a 0 -x {0.0 1.0 -1 ------- null}
r -t 0.897999999999998 -s 0 -d 1 -p cbr -e 1000 -c 0 -i 72 -a 0 -x {0.0 1.0 72 ------- null}
+ -t 0.899999999999998 -s 0 -d 1 -p cbr -e 1000 -c 0 -i 75 -a 0 -x {0.0 1.0 75 ------- null}
- -t 0.899999999999998 -s 0 -d 1 -p cbr -e 1000 -c 0 -i 75 -a 0 -x {0.0 1.0 75 ------- null}
h -t 0.899999999999998 -s 0 -d 1 -p cbr -e 1000 -c 0 -i 75 -a 0 -x {0.0 1.0 -1 ------- null}
r -t 0.903333333333331 -s 0 -d 1 -p cbr -e 1000 -c 0 -i 73 -a 0 -x {0.0 1.0 73 ------- null}
+ -t 0.905333333333331 -s 0 -d 1 -p cbr -e 1000 -c 0 -i 76 -a 0 -x {0.0 1.0 76 ------- null}
- -t 0.905333333333331 -s 0 -d 1 -p cbr -e 1000 -c 0 -i 76 -a 0 -x {0.0 1.0 76 ------- null}
h -t 0.905333333333331 -s 0 -d 1 -p cbr -e 1000 -c 0 -i 76 -a 0 -x {0.0 1.0 -1 ------- null}
r -t 0.908666666666664 -s 0 -d 1 -p cbr -e 1000 -c 0 -i 74 -a 0 -x {0.0 1.0 74 ------- null}
+ -t 0.910666666666664 -s 0 -d 1 -p cbr -e 1000 -c 0 -i 77 -a 0 -x {0.0 1.0 77 ------- null}
- -t 0.910666666666664 -s 0 -d 1 -p cbr -e 1000 -c 0 -i 77 -a 0 -x {0.0 1.0 77 ------- null}
h -t 0.910666666666664 -s 0 -d 1 -p cbr -e 1000 -c 0 -i 77 -a 0 -x {0.0 1.0 -1 ------- null}
r -t 0.913999999999998 -s 0 -d 1 -p cbr -e 1000 -c 0 -i 75 -a 0 -x {0.0 1.0 75 ------- null}
+ -t 0.915999999999997 -s 0 -d 1 -p cbr -e 1000 -c 0 -i 78 -a 0 -x {0.0 1.0 78 ------- null}
- -t 0.915999999999997 -s 0 -d 1 -p cbr -e 1000 -c 0 -i 78 -a 0 -x {0.0 1.0 78 ------- null}
h -t 0.915999999999997 -s 0 -d 1 -p cbr -e 1000 -c 0 -i 78 -a 0 -x {0.0 1.0 -1 ------- null}
r -t 0.919333333333331 -s 0 -d 1 -p cbr -e 1000 -c 0 -i 76 -a 0 -x {0.0 1.0 76 ------- null}
+ -t 0.921333333333331 -s 0 -d 1 -p cbr -e 1000 -c 0 -i 79 -a 0 -x {0.0 1.0 79 ------- null}
- -t 0.921333333333331 -s 0 -d 1 -p cbr -e 1000 -c 0 -i 79 -a 0 -x {0.0 1.0 79 ------- null}
h -t 0.921333333333331 -s 0 -d 1 -p cbr -e 1000 -c 0 -i 79 -a 0 -x {0.0 1.0 -1 ------- null}
r -t 0.924666666666664 -s 0 -d 1 -p cbr -e 1000 -c 0 -i 77 -a 0 -x {0.0 1.0 77 ------- null}
+ -t 0.926666666666664 -s 0 -d 1 -p cbr -e 1000 -c 0 -i 80 -a 0 -x {0.0 1.0 80 ------- null}
- -t 0.926666666666664 -s 0 -d 1 -p cbr -e 1000 -c 0 -i 80 -a 0 -x {0.0 1.0 80 ------- null}
h -t 0.926666666666664 -s 0 -d 1 -p cbr -e 1000 -c 0 -i 80 -a 0 -x {0.0 1.0 -1 ------- null}
r -t 0.929999999999997 -s 0 -d 1 -p cbr -e 1000 -c 0 -i 78 -a 0 -x {0.0 1.0 78 ------- null}
+ -t 0.931999999999997 -s 0 -d 1 -p cbr -e 1000 -c 0 -i 81 -a 0 -x {0.0 1.0 81 ------- null}